[Molden Format]
made by pyscf v[2.2.0]
[Atoms] (AU)
O   1   8     0.00000000000000     0.00000000000000    -0.13209669380598
H   2   1     0.00000000000000     1.43152878538173     0.97970006890258
H   3   1     0.00000000000000    -1.43152878538173     0.97970006890258
[GTO]
1 0
 s    8 1.00
                 11720  0.00070964594651845
                  1759  0.0054672722921914
                 400.8   0.027823118610189
                 113.7    0.10474773971146
                 37.03    0.28292084635691
                 13.27    0.44849523869833
                 5.025    0.27081688521277
                 1.013    0.01545029160744
 s    8 1.00
                 11720  -0.00031444341168873
                  1759  -0.0024821376810179
                 400.8  -0.012316355381583
                 113.7  -0.050538917343672
                 37.03   -0.13938490331632
                 13.27   -0.32507749481778
                 5.025   -0.22984830758785
                 1.013     1.0953793467883
 s    1 1.00
                0.3023                   1
 p    3 1.00
                  17.7   0.062679166281506
                 3.854    0.33353656587936
                 1.046    0.74123964163973
 p    1 1.00
                0.2753                   1
 d    1 1.00
                 1.185                   1

2 0
 s    3 1.00
                 13.01   0.033498726389998
                 1.962    0.23480080117413
                0.4446     0.8136829578829
 s    1 1.00
                 0.122                   1
 p    1 1.00
                 0.727                   1

3 0
 s    3 1.00
                 13.01   0.033498726389998
                 1.962    0.23480080117413
                0.4446     0.8136829578829
 s    1 1.00
                 0.122                   1
 p    1 1.00
                 0.727                   1

[5d]
[7f]
[9g]

 Sym= A
 Ene=    -20.55384018
 Spin= Beta
 Occup=    1.00000
   1       1.0011090606189
   2    0.0017376002296159
   3    -0.0030672238863426
   4    7.637484042989e-19
   5    -6.3862517942728e-17
   6     0.001740846346523
   7    -1.4896016782849e-19
   8    -1.5617243649285e-16
   9    -0.00044238026676209
  10    1.5217073801105e-05
  11    -1.5756463371787e-19
  12    -7.9802892572106e-17
  13    -0.00017392378573815
  14    -2.7411330757129e-18
  15    -0.00029707163883257
  16    0.00045105523059814
  17    1.4326395481707e-18
  18    0.00060518675860985
  19    0.00051539487600383
  20    -0.00029707163883269
  21    0.00045105523059782
  22    8.1158771096635e-19
  23    -0.00060518675861016
  24    0.00051539487600413
 Sym= A
 Ene=    -1.372063498
 Spin= Beta
 Occup=    1.00000
   1    -0.0066272725044777
   2       0.4448646049664
   3       0.3686935596833
   4    -9.4205687561731e-16
   5    1.321311834378e-15
   6     0.087233817606587
   7    -6.7201293359859e-16
   8    5.549569211164e-16
   9    -0.015954881036258
  10    0.0013707472977858
  11    -3.1456782820305e-17
  12    7.0811618095101e-17
  13    -0.0035651699027967
  14    -3.262265689657e-17
  15      0.19495520584304
  16     0.013403591815884
  17    -3.6722908615461e-17
  18    -0.036292751812858
  19    -0.019637152235846
  20      0.19495520584304
  21     0.013403591815882
  22    -8.5072308223945e-17
  23     0.036292751812858
  24    -0.019637152235846
 Sym= A
 Ene=   -0.7604953698
 Spin= Beta
 Occup=    1.00000
   1    1.6133199068624e-16
   2    7.7351645513818e-16
   3    -2.2142296784519e-16
   4    -2.9109941910233e-15
   5     -0.49790922978153
   6    -4.9014618003544e-16
   7    -1.4421272492348e-15
   8     -0.21192456493815
   9    -1.4194911746054e-16
  10    1.2859478538346e-16
  11    -4.6215308116315e-17
  12    -0.025912297640632
  13    -2.0110037997154e-16
  14    -1.4098793006557e-16
  15     -0.32702608900294
  16    -0.099303720187905
  17    -7.3341354094042e-17
  18     0.019187653795988
  19     0.030159778561429
  20      0.32702608900294
  21     0.099303720187906
  22    -2.5775466552018e-16
  23     0.019187653795988
  24    -0.030159778561429
 Sym= A
 Ene=   -0.6252972615
 Spin= Beta
 Occup=    1.00000
   1    0.0043216674275788
   2     -0.15041151399672
   3     -0.35684638361198
   4    4.3850975150772e-16
   5    1.7470835709454e-17
   6      0.54574301412499
   7    3.3417604694242e-16
   8    9.5223691428755e-16
   9       0.3614949039291
  10     0.018017020440106
  11    -5.4970300925196e-18
  12    7.7829132937993e-17
  13    -0.0039617388180365
  14    3.5983108292375e-17
  15      0.20573155079045
  16     0.044580549954218
  17    3.3499216058155e-17
  18    -0.028825574848221
  19       0.0118545209232
  20      0.20573155079045
  21     0.044580549954221
  22    -5.8572754923753e-18
  23     0.028825574848222
  24       0.0118545209232
 Sym= A
 Ene=   -0.5494663238
 Spin= Beta
 Occup=    1.00000
   1    1.7234558532948e-17
   2    6.2842379687546e-16
   3    8.5200687014413e-16
   4      0.62808909470844
   5    -2.1378364317507e-15
   6    -1.0126477527681e-16
   7      0.49688323425487
   8    -2.5451498721986e-15
   9    -3.7001381876073e-16
  10    -8.2644996631355e-17
  11     0.018396266365454
  12    -3.6910971409974e-17
  13    1.5846274523727e-16
  14    -1.0835181410853e-17
  15    -2.4931834661453e-16
  16    1.0719551111762e-15
  17     0.033599440270268
  18    2.8012394509762e-16
  19    -1.0537025433805e-16
  20    7.8995583824515e-17
  21    -1.5212682147223e-15
  22     0.033599440270268
  23    3.1012625841004e-16
  24    2.3033524125255e-16
 Sym= A
 Ene=    0.1949429153
 Spin= Beta
 Occup=    0.00000
   1    -0.055446911915787
   2     0.063858158876913
   3       1.0124104567197
   4    6.9476759297439e-17
   5    -1.1035419015722e-14
   6       0.1839107066644
   7    1.0087680923663e-16
   8    -3.2221605947205e-14
   9      0.34841297743957
  10    0.0079088328679591
  11    -2.8539568075036e-19
  12    -1.7787660912121e-15
  13     -0.01137552336563
  14    -1.2377756174717e-18
  15    -0.047680236201243
  16     -0.83782089096893
  17    -1.1954888614071e-17
  18     0.020139616709086
  19     0.018361272287529
  20    -0.047680236201238
  21     -0.83782089096907
  22    2.8198331351828e-17
  23    -0.020139616709091
  24     0.018361272287532
 Sym= A
 Ene=    0.2681714386
 Spin= Beta
 Occup=    0.00000
   1    -5.7702605673315e-16
   2    -9.6005606958017e-15
   3    -3.2511592620859e-14
   4    3.7642836844574e-16
   5      -0.2710378188107
   6    -7.8298530867587e-15
   7    -7.1523190779714e-16
   8     -0.68105292110377
   9    -9.5593764692009e-15
  10    -2.2123159806564e-16
  11    -3.52191443252e-16
  12     -0.02333864295851
  13    5.8193707302328e-17
  14    2.6237044672816e-16
  15    0.0096310719291446
  16       1.4621268614843
  17    7.7820818417117e-17
  18    -0.023476746783466
  19    -0.020085148515704
  20    -0.0096310719291542
  21      -1.4621268614842
  22    3.4341820188372e-16
  23    -0.023476746783466
  24     0.020085148515704
 Sym= A
 Ene=    0.8023076422
 Spin= Beta
 Occup=    0.00000
   1    2.5302906944868e-15
   2    6.2267697335623e-15
   3    -8.2531682755954e-15
   4    -1.7432845622891e-15
   5     -0.25685712355636
   6    5.4752525642516e-16
   7    1.3377613271289e-15
   8      -0.4996951838415
   9    -2.1402340536854e-15
  10    -1.4010091808419e-16
  11    5.8783807888069e-17
  12       0.1092705634012
  13    5.8466986859524e-16
  14    3.7442566566622e-16
  15      0.94964680918378
  16     -0.64997601804604
  17    -1.2429579650229e-16
  18     0.071237149727392
  19      0.15096130725305
  20     -0.94964680918377
  21      0.64997601804604
  22    1.5132375301756e-16
  23     0.071237149727393
  24     -0.15096130725305
 Sym= A
 Ene=    0.8687296374
 Spin= Beta
 Occup=    0.00000
   1     0.062987988192657
   2      0.25435811620833
   3      -0.2941653563548
   4    -6.0386447668421e-16
   5    4.8971868681074e-17
   6      0.31544653468569
   7    6.5623888598694e-16
   8    2.7438009654101e-15
   9     0.019901470402992
  10    -0.00088454043567443
  11    -9.5635935730138e-18
  12    1.3315707498173e-16
  13      0.10556773256195
  14    -6.6640897016982e-17
  15     -0.79710312473006
  16      0.53424555086632
  17    -1.197955274619e-16
  18     -0.29710898467001
  19    -0.056077435078582
  20     -0.79710312473006
  21      0.53424555086634
  22    1.4100649997878e-16
  23      0.29710898467001
  24    -0.056077435078583
 Sym= A
 Ene=     1.183356296
 Spin= Beta
 Occup=    0.00000
   1    0.0039790191476236
   2    -0.098003381428867
   3     -0.77602735478785
   4    9.3186463984425e-15
   5    -2.5482821508105e-15
   6      0.75939391702472
   7    -9.7510330050774e-15
   8    8.3390642050221e-15
   9      -1.2833256234379
  10    -0.011969733244072
  11    4.3187430608838e-17
  12    3.7907771514023e-16
  13    -0.0041201845523219
  14    1.3714710238935e-16
  15      0.53735628491568
  16      0.12186742823012
  17    -3.634036870852e-17
  18    -0.093047284665031
  19      -0.2554476923047
  20      0.53735628491569
  21      0.12186742823013
  22    -6.3114558914671e-17
  23     0.093047284665033
  24      -0.2554476923047
 Sym= A
 Ene=     1.229368224
 Spin= Beta
 Occup=    0.00000
   1    6.2197453509239e-16
   2    2.7276030329809e-15
   3    5.4862257658184e-15
   4      0.96966121828642
   5    1.220384819667e-14
   6    -7.5914280257277e-15
   7      -1.0272707518399
   8    -3.0022523117473e-14
   9    1.3741096240189e-14
  10    -9.9466854281684e-17
  11    0.0049640404807798
  12    -3.6058688942238e-16
  13    1.8035455194608e-17
  14    -1.1186669488546e-15
  15    2.6600132434242e-15
  16    1.007287996402e-14
  17    -0.0036148080127131
  18    -3.4192504003353e-15
  19    -2.0074772747431e-15
  20    -1.5297129640776e-14
  21    -1.0661215262308e-14
  22    -0.0036148080127019
  23    -5.5147233077061e-15
  24    4.9561833779853e-15
 Sym= A
 Ene=     1.265391458
 Spin= Beta
 Occup=    0.00000
   1    9.3870504831083e-16
   2     2.83046605009e-15
   3    1.9745521858173e-15
   4    1.5794568926953e-14
   5     -0.73786877235839
   6    -3.1856084364539e-15
   7    -1.8194214668859e-14
   8       1.7505253618342
   9     5.61844689217e-15
  10    3.3843652944149e-16
  11    3.1649149220029e-16
  12     0.047528352632282
  13    6.5955143884761e-17
  14    1.6093384725352e-16
  15     -0.36292733127347
  16     -0.81912367981205
  17    1.2806668343574e-15
  18      0.30497343737418
  19      0.19225458829727
  20      0.36292733127347
  21      0.81912367981205
  22    -1.2509042775425e-15
  23      0.30497343737418
  24     -0.19225458829727
 Sym= A
 Ene=     1.449315849
 Spin= Beta
 Occup=    0.00000
   1     -0.19521322741855
   2     -0.51490106860342
   3      0.47645913315311
   4    2.1439540448133e-15
   5    -1.8409055041603e-16
   6      0.13284657430428
   7    -2.1593006377682e-15
   8    -6.3222892963213e-17
   9      -0.7535143722115
  10      0.11606899858828
  11    4.3697137764381e-18
  12    1.9033691745756e-16
  13    0.0044984624139336
  14    8.640697466668e-16
  15      0.34248699411045
  16     -0.20474377001339
  17    3.4802033791416e-15
  18     -0.33374637376561
  19       0.5445281401814
  20      0.34248699411044
  21     -0.20474377001338
  22    -3.5508792789717e-15
  23      0.33374637376562
  24       0.5445281401814
 Sym= A
 Ene=     1.481504548
 Spin= Beta
 Occup=    0.00000
   1    -1.0972396776625e-15
   2    -2.8870091831059e-15
   3    2.8051548997512e-15
   4    -5.741329914624e-15
   5    -7.7821584841336e-16
   6    7.7923683939386e-16
   7    2.7909284500674e-14
   8    6.5140524477182e-15
   9    -4.039585318997e-15
  10        6.03535734e-16
  11    -4.9347382736854e-15
  12    -6.4679378244195e-18
  13    -2.7230549255322e-17
  14      -0.1290163472593
  15    2.471543827916e-16
  16    -4.7461532153489e-15
  17     -0.68647921823532
  18    -1.7010703469837e-15
  19    5.2824174839022e-15
  20    3.7139088937585e-15
  21    2.2044198423036e-15
  22      0.68647921823527
  23    1.6720674521635e-15
  24    5.4406104989762e-16
 Sym= A
 Ene=     1.677087635
 Spin= Beta
 Occup=    0.00000
   1    7.7791524186183e-17
   2    1.6895193662756e-16
   3    -3.547218448044e-16
   4    -0.026711872657643
   5    1.5934371969548e-15
   6    1.0349565511203e-17
   7     -0.62851938592801
   8    6.1177759656171e-15
   9    -1.5882533211564e-16
  10    3.3252077761903e-17
  11      0.15813615369556
  12    -3.451292654799e-16
  13    -2.5490853889006e-17
  14    -5.0661998618504e-15
  15    -2.9400017250603e-15
  16    -1.4768466542671e-15
  17       0.7674369483287
  18    -2.2453130928391e-15
  19    5.490220278712e-15
  20    3.198992745592e-15
  21    1.5535740931563e-15
  22      0.76743694832876
  23    -2.1268964761559e-15
  24    -5.456363116825e-15
 Sym= A
 Ene=     1.875906968
 Spin= Beta
 Occup=    0.00000
   1      0.72663857507698
   2       1.5998863568171
   3      -3.0295833902315
   4    -7.4435217277828e-16
   5    -1.2630731785434e-15
   6      -0.1156403237225
   7    6.1375670650282e-16
   8    1.3354234659726e-14
   9      -0.9534413216452
  10      0.11223409213853
  11    -2.9760056193492e-17
  12    -2.7228754811154e-16
  13     -0.10761287376398
  14    8.220575936746e-17
  15      0.82038945138664
  16      0.38673638824102
  17    -1.8990679564683e-16
  18     -0.37006648327936
  19     0.019110470194746
  20      0.82038945138666
  21        0.386736388241
  22    -2.0237918233121e-17
  23      0.37006648327934
  24     0.019110470194724
 Sym= A
 Ene=     1.934300187
 Spin= Beta
 Occup=    0.00000
   1    1.351565453842e-14
   2    2.9907208371128e-14
   3    -5.5956114571477e-14
   4    -1.2049394024001e-15
   5    0.0083554654979366
   6    -9.7397394652295e-16
   7    -2.9979216101586e-15
   8     -0.89545006239633
   9    -1.8144271038158e-14
  10    2.277101085208e-15
  11    2.2387504692862e-15
  12     0.029182627098602
  13    -2.2735388246281e-15
  14    -1.5178677343036e-15
  15      0.38462884575639
  16     0.089696052476301
  17    3.8097771515315e-15
  18       0.4717677859779
  19     -0.69289109491903
  20     -0.38462884575636
  21    -0.089696052476287
  22    7.1009508920325e-15
  23      0.47176778597791
  24      0.69289109491902
 Sym= A
 Ene=     2.453683009
 Spin= Beta
 Occup=    0.00000
   1    -7.5919035784818e-16
   2    -2.6204492088916e-15
   3    -1.0146752640375e-14
   4    1.2885993725845e-16
   5      0.83671299255284
   6    -6.138331076452e-15
   7    7.2139821946742e-16
   8      0.14963959316223
   9    -1.0693201041373e-15
  10    1.5234946518282e-15
  11    -2.044047107986e-15
  12     -0.13770284478672
  13    -2.191024914786e-15
  14    8.6828520203592e-15
  15     -0.29851716776129
  16     -0.32913847159304
  17    -3.286903225134e-15
  18      0.72312926327618
  19      0.55329311985002
  20       0.2985171677613
  21      0.32913847159305
  22    1.2957049888984e-15
  23      0.72312926327619
  24     -0.55329311985003
 Sym= A
 Ene=     2.492821812
 Spin= Beta
 Occup=    0.00000
   1      0.27513352230295
   2      0.72437373079184
   3      0.79623417350965
   4    2.6067234319115e-16
   5    7.0650480776139e-15
   6      0.66929863193447
   7    -1.1893259088745e-16
   8    2.1358348363761e-16
   9      0.18024205547761
  10    -0.052279700738677
  11    1.5580824851023e-18
  12    -1.8329865138062e-15
  13      0.21613431661493
  14    -6.1515547944575e-17
  15     -0.48306772595366
  16     -0.15865504253449
  17    4.7488081314293e-17
  18      0.74279154712981
  19      0.53699801084482
  20     -0.48306772595365
  21     -0.15865504253449
  22    -1.3179157540709e-17
  23      -0.7427915471298
  24      0.53699801084482
 Sym= A
 Ene=      3.28988141
 Spin= Beta
 Occup=    0.00000
   1    9.3772104153865e-18
   2    1.264048400571e-17
   3    -1.5976526407008e-16
   4    -0.012389675335944
   5    1.690723288301e-15
   6    -3.6561384540616e-17
   7      0.30940775152621
   8    5.1214888875141e-16
   9    -4.8156617338337e-18
  10    9.0529489405191e-17
  11       1.0428930548164
  12    -1.7756109808109e-17
  13    1.2572882593867e-16
  14    1.8134455909175e-13
  15    -6.4992184125976e-16
  16    -3.2711797546913e-16
  17      -0.3954247142345
  18    -5.1442457459245e-17
  19    1.6773520205266e-15
  20    7.895898091042e-16
  21    3.6628293533902e-16
  22     -0.39542471423437
  23    -5.2721722602734e-18
  24    -1.8242538710299e-15
 Sym= A
 Ene=     3.340939219
 Spin= Beta
 Occup=    0.00000
   1    -1.1032818836623e-16
   2     -1.2933397744e-16
   3    1.1654921923267e-15
   4    2.2995147368098e-15
   5    -8.2182535851823e-15
   6    -2.1711456664749e-16
   7    -5.1832548327902e-14
   8    -2.7940869634501e-15
   9    1.5038260628288e-15
  10    1.4107182570158e-15
  11    -1.7440788316496e-13
  12    7.7993187513498e-16
  13    2.4084639483884e-16
  14        1.065687667673
  15    1.5618359731687e-15
  16    5.7000184806898e-15
  17     -0.36845177468819
  18    -5.9436572666749e-15
  19    -7.1227789818781e-15
  20    -3.3693874071626e-15
  21    -5.555496011324e-15
  22      0.36845177468833
  23    -7.4003135985239e-15
  24    6.0536639976679e-15
 Sym= A
 Ene=     3.512228139
 Spin= Beta
 Occup=    0.00000
   1    -0.083444906473097
   2     -0.15337129112629
   3      0.54317001606975
   4    5.2306287778687e-17
   5    2.779039031491e-16
   6     0.015641034643413
   7    -2.6879273005984e-16
   8    1.6348479393655e-15
   9      0.53000685858699
  10       1.0832436756762
  11    -1.1221313764971e-16
  12    2.452251968246e-15
  13      0.18357313961644
  14    -1.4982570331319e-15
  15      -0.2982352720486
  16     -0.03630604381642
  17    5.3382246580765e-16
  18      0.34741779838261
  19     -0.31524112638901
  20      -0.2982352720486
  21    -0.036306043816417
  22    -4.9417145185913e-16
  23      -0.3474177983826
  24     -0.31524112638901
 Sym= A
 Ene=     3.865144865
 Spin= Beta
 Occup=    0.00000
   1     -0.14590337625234
   2     -0.18260683583817
   3       2.2619266697504
   4    -2.9533990679133e-16
   5    -7.8313452723188e-15
   6      0.40282306059653
   7    -3.7922335905972e-17
   8    -1.7508725496375e-14
   9      0.92219507529567
  10      0.14439902151237
  11    1.0304732955513e-16
  12    -2.1608573997911e-14
  13      -1.1576390632139
  14    -4.2584487989687e-17
  15      -1.2326627033503
  16     -0.19150023296645
  17    -2.7079314253624e-17
  18      0.61958678830966
  19      0.49020024337838
  20      -1.2326627033503
  21     -0.19150023296645
  22    -1.0459292274732e-16
  23     -0.61958678830968
  24       0.4902002433784
 Sym= A
 Ene=     4.148470217
 Spin= Beta
 Occup=    0.00000
   1    -2.3084366260788e-15
   2    -2.9235896708193e-15
   3    3.8437270625259e-14
   4    -1.8359197487829e-16
   5      0.46563305045567
   6    6.8449504678522e-15
   7    1.4531702933263e-16
   8         1.13819208048
   9     1.52141305932e-14
  10    3.5600180624803e-16
  11    -2.5516017000827e-16
  12       1.3251314682075
  13    -1.9434613642184e-14
  14    4.2979986785427e-16
  15      -1.0797389711002
  16     -0.28779958356749
  17    -1.7864529818025e-16
  18      0.60333592260989
  19      0.49410758224003
  20       1.0797389711001
  21      0.28779958356748
  22     9.87057498794e-17
  23      0.60333592260987
  24     -0.49410758224001
