[Molden Format]
made by pyscf v[2.2.0]
[Atoms] (AU)
O   1   8     0.00000000000000     0.00000000000000    -0.13209669380598
H   2   1     0.00000000000000     1.43152878538173     0.97970006890258
H   3   1     0.00000000000000    -1.43152878538173     0.97970006890258
[GTO]
1 0
 s    8 1.00
                 15330  0.00052019830712555
                  2299  0.0040233447808982
                 522.4   0.020729083329021
                 147.3   0.081082327079741
                 47.55    0.23622635211786
                 16.76    0.44351820942048
                 6.207    0.35867058868857
                0.6882  -0.0083497972368145
 s    8 1.00
                 15330  -0.00019723601167594
                  2299  -0.0015350106995649
                 522.4  -0.007951183914171
                 147.3  -0.032113452892351
                 47.55   -0.10026964304879
                 16.76   -0.23404711183769
                 6.207   -0.30141092775591
                0.6882     1.0349196495085
 s    1 1.00
                 1.752                   1
 s    1 1.00
                0.2384                   1
 s    1 1.00
               0.07376                   1
 p    3 1.00
                 34.46   0.041163489568397
                 7.749    0.25776283585835
                  2.28    0.80241927442683
 p    1 1.00
                0.7156                   1
 p    1 1.00
                 0.214                   1
 p    1 1.00
               0.05974                   1
 d    1 1.00
                 2.314                   1
 d    1 1.00
                 0.645                   1
 d    1 1.00
                 0.214                   1
 f    1 1.00
                 1.428                   1
 f    1 1.00
                   0.5                   1

2 0
 s    3 1.00
                 33.87    0.02549486323468
                 5.095     0.1903627658927
                 1.159    0.85216202224527
 s    1 1.00
                0.3258                   1
 s    1 1.00
                0.1027                   1
 s    1 1.00
               0.02526                   1
 p    1 1.00
                 1.407                   1
 p    1 1.00
                 0.388                   1
 p    1 1.00
                 0.102                   1
 d    1 1.00
                 1.057                   1
 d    1 1.00
                 0.247                   1

3 0
 s    3 1.00
                 33.87    0.02549486323468
                 5.095     0.1903627658927
                 1.159    0.85216202224527
 s    1 1.00
                0.3258                   1
 s    1 1.00
                0.1027                   1
 s    1 1.00
               0.02526                   1
 p    1 1.00
                 1.407                   1
 p    1 1.00
                 0.388                   1
 p    1 1.00
                 0.102                   1
 d    1 1.00
                 1.057                   1
 d    1 1.00
                 0.247                   1

[5d]
[7f]
[9g]

