[Molden Format]
made by pyscf v[2.2.0]
[Atoms] (AU)
O   1   8     0.00000000000000     0.00000000000000    -0.13209669380598
H   2   1     0.00000000000000     1.43152878538173     0.97970006890258
H   3   1     0.00000000000000    -1.43152878538173     0.97970006890258
[GTO]
1 0
 s    8 1.00
                 11720  0.00070964594651845
                  1759  0.0054672722921914
                 400.8   0.027823118610189
                 113.7    0.10474773971146
                 37.03    0.28292084635691
                 13.27    0.44849523869833
                 5.025    0.27081688521277
                 1.013    0.01545029160744
 s    8 1.00
                 11720  -0.00031444341168873
                  1759  -0.0024821376810179
                 400.8  -0.012316355381583
                 113.7  -0.050538917343672
                 37.03   -0.13938490331632
                 13.27   -0.32507749481778
                 5.025   -0.22984830758785
                 1.013     1.0953793467883
 s    1 1.00
                0.3023                   1
 p    3 1.00
                  17.7   0.062679166281506
                 3.854    0.33353656587936
                 1.046    0.74123964163973
 p    1 1.00
                0.2753                   1
 d    1 1.00
                 1.185                   1

2 0
 s    3 1.00
                 13.01   0.033498726389998
                 1.962    0.23480080117413
                0.4446     0.8136829578829
 s    1 1.00
                 0.122                   1
 p    1 1.00
                 0.727                   1

3 0
 s    3 1.00
                 13.01   0.033498726389998
                 1.962    0.23480080117413
                0.4446     0.8136829578829
 s    1 1.00
                 0.122                   1
 p    1 1.00
                 0.727                   1

[5d]
[7f]
[9g]

[MO]
 Sym= A
 Ene=    -20.55086587
 Spin= Alpha
 Occup=    1.00000
   1       1.0008955495439
   2    0.0011632581138353
   3    -0.0026772285432601
   4    1.0378026145885e-18
   5    7.6679345698159e-18
   6    0.0017588996232237
   7    -5.2892088044643e-19
   8    3.9557228212266e-17
   9    -0.00049010205724342
  10    1.1181508159422e-05
  11    2.0792698869979e-19
  12    1.9197154716571e-17
  13    -0.00013346027597189
  14    -2.2957080964597e-19
  15    -0.00023045374742375
  16    0.00042142495504634
  17    -5.4926981219006e-20
  18    0.00056522110326109
  19    0.00047891396278855
  20    -0.00023045374742371
  21    0.00042142495504641
  22    3.7525907719641e-20
  23    -0.00056522110326103
  24    0.00047891396278855
 Sym= A
 Ene=    -1.335862954
 Spin= Alpha
 Occup=    1.00000
   1    -0.0081249114005113
   2      0.44308911437639
   3      0.37691274290457
   4    -8.9351262382696e-17
   5    -3.065952359634e-16
   6     0.078622215567664
   7    5.1273106057466e-17
   8    -1.0671159309614e-15
   9    -0.012857328282371
  10     0.001262227408902
  11    -1.888981534318e-18
  12    -2.0122792321331e-16
  13    -0.0029830321995139
  14    8.6982627335115e-18
  15      0.19290449661354
  16     0.010123399096862
  17    -5.0070917539991e-18
  18    -0.037166663000434
  19    -0.020504373104209
  20      0.19290449661354
  21     0.010123399096859
  22    1.196498741159e-17
  23     0.037166663000434
  24    -0.020504373104208
 Sym= A
 Ene=    -0.697923942
 Spin= Alpha
 Occup=    1.00000
   1    -7.2127513820959e-17
   2    -1.261303444276e-16
   3    1.8369590588458e-16
   4    -3.1556918237623e-17
   5      0.48982167062418
   6    -1.9858701333644e-16
   7    -1.2890024432013e-16
   8      0.22274588970044
   9    -2.8868952743305e-16
  10    -1.2316536679435e-16
  11    6.0379650021277e-17
  12     0.026762321623582
  13    -1.1796119636642e-16
  14    5.6395602757125e-18
  15      0.32749321145043
  16     0.090284663201154
  17    -3.6208883897379e-18
  18    -0.023258341523115
  19    -0.032674401321366
  20     -0.32749321145043
  21    -0.090284663201155
  22    -1.0957011679315e-18
  23    -0.023258341523114
  24     0.032674401321367
 Sym= A
 Ene=   -0.5665936603
 Spin= Alpha
 Occup=    1.00000
   1    0.0021797737247323
   2     -0.15046281327456
   3     -0.34968743287698
   4    -4.1312675769155e-16
   5    2.8835742864355e-16
   6      0.54507732840653
   7    -3.0886847859531e-16
   8    1.0943072272806e-15
   9      0.36504281379945
  10     0.017871183778281
  11    -9.1724748927403e-18
  12    2.4980018054066e-16
  13    -0.0045866359379411
  14    -1.9603081041007e-17
  15      0.20670939435517
  16     0.040711660375595
  17    -2.4469033440165e-17
  18    -0.031789862872059
  19    0.0074148277733065
  20      0.20670939435517
  21     0.040711660375596
  22    6.2798329295116e-19
  23     0.031789862872059
  24    0.0074148277733059
 Sym= A
 Ene=   -0.4930753783
 Spin= Alpha
 Occup=    1.00000
   1    -4.6532880203951e-17
   2    -2.8150210588905e-16
   3    -2.3559083966204e-16
   4       0.6312592275498
   5    9.5428572440285e-17
   6    8.5413302771918e-16
   7      0.49570220105365
   8    5.6419587331524e-16
   9    -5.0647791179273e-16
  10    3.3155008896313e-17
  11     0.018197116128911
  12    5.1441829811495e-17
  13    -9.0897317892061e-17
  14    7.7525766698606e-17
  15    4.0741967952126e-16
  16    -7.9721754601668e-16
  17     0.031015645003195
  18    -4.7057750030102e-16
  19    -2.5894029211973e-16
  20    4.7169041266635e-16
  21    6.1241150306208e-16
  22     0.031015645003195
  23    -5.3356346373054e-16
  24    2.3438097233056e-16
 Sym= A
 Ene=    0.1852096711
 Spin= Alpha
 Occup=    0.00000
   1    -0.052032309347864
   2     0.072547729862168
   3       1.0005074965528
   4    -8.2470118270855e-18
   5    2.2943177584411e-15
   6       0.1913800813929
   7    -1.5059791969802e-16
   8    1.0996176827628e-14
   9      0.33817524123737
  10    0.0075819707099237
  11    3.0528048321505e-18
  12    3.9898639947467e-17
  13    -0.0098747398743372
  14    1.722893254906e-16
  15    -0.059143148272306
  16     -0.82835657341339
  17     5.62667800548e-17
  18     0.017368656621913
  19     0.016258287549672
  20    -0.059143148272301
  21     -0.82835657341335
  22    -1.7144214783766e-17
  23    -0.017368656621914
  24     0.016258287549672
 Sym= A
 Ene=    0.2559930794
 Spin= Alpha
 Occup=    0.00000
   1    1.5130243344118e-15
   2    2.4064599327631e-15
   3    -9.0364869863659e-15
   4    -2.7466780502277e-16
   5      0.28380963547263
   6    -2.7323182674061e-15
   7    -7.7346300468493e-16
   8      0.67073197922773
   9    6.6158016703407e-16
  10    2.5316120727537e-17
  11    -1.1756448761299e-16
  12     0.021107650133464
  13    -4.0766001685455e-17
  14    -1.5205375902857e-16
  15    -0.026512642928799
  16      -1.4417270189797
  17    3.7654256132616e-16
  18     0.020678219652015
  19      0.01698002908443
  20     0.026512642928792
  21       1.4417270189797
  22    -1.3241710930435e-17
  23     0.020678219652011
  24     -0.01698002908443
 Sym= A
 Ene=    0.7873171307
 Spin= Alpha
 Occup=    0.00000
   1    -1.3736965587895e-15
   2    -4.0130040943824e-15
   3    3.8967459715103e-15
   4    -1.7043410092204e-16
   5      0.26796374276031
   6    -1.3577640600502e-15
   7    -1.492213894955e-16
   8      0.45789528598072
   9    -1.0906048814137e-15
  10    -5.3776427755281e-17
  11    -2.4539793145088e-17
  12     -0.11154931261942
  13    -5.9674487573602e-16
  14    -3.6454917178486e-17
  15     -0.94415256877127
  16      0.68973905489709
  17    2.1809558724748e-16
  18    -0.073487073742118
  19     -0.15191453267933
  20      0.94415256877128
  21      -0.6897390548971
  22    2.1811931746683e-17
  23    -0.073487073742121
  24      0.15191453267934
 Sym= A
 Ene=    0.8533533578
 Spin= Alpha
 Occup=    0.00000
   1    -0.065896014798353
   2     -0.25682531917356
   3      0.32250740772635
   4    -3.8397201853258e-16
   5    -2.0381969924881e-15
   6     -0.33058848958226
   7    2.5180148613879e-16
   8    -1.849203067978e-15
   9     0.010294054846812
  10    0.0012659066305058
  11    -2.1859435798384e-17
  12    1.3877787807814e-16
  13     -0.10671466880705
  14    -2.6019125646001e-17
  15      0.78804675657642
  16     -0.54920502443996
  17    1.2288528892838e-17
  18      0.29486506891108
  19     0.059987275572788
  20      0.78804675657641
  21     -0.54920502443995
  22    7.4072789363985e-17
  23     -0.29486506891108
  24     0.059987275572788
 Sym= A
 Ene=     1.163781326
 Spin= Alpha
 Occup=    0.00000
   1    0.0036284329845316
   2      0.11603415031385
   3       0.7431136529376
   4    -4.1175097533189e-15
   5    -1.3033149317277e-15
   6      -0.7539902931054
   7    4.8708170440809e-15
   8    -1.7538944438902e-15
   9        1.277064622449
  10     0.013055357049521
  11    5.2472495832958e-17
  12    -7.7715611723761e-16
  13    0.0071210004144744
  14    1.0011453002633e-16
  15     -0.54544960482298
  16     -0.11208256552319
  17    -1.0297994307316e-17
  18     0.082663298314525
  19      0.25234449938515
  20     -0.54544960482298
  21      -0.1120825655232
  22    8.2900424385175e-17
  23    -0.082663298314529
  24      0.25234449938515
 Sym= A
 Ene=     1.200317962
 Spin= Alpha
 Occup=    0.00000
   1    2.649364968918e-16
   2    1.1343612979756e-16
   3    -4.8081011317591e-15
   4     -0.96782662995428
   5    -5.1775144844435e-16
   6    3.5010717378813e-15
   7        1.023640379598
   8    1.4506975405525e-15
   9    -6.4446366727836e-15
  10    1.6880556073307e-16
  11    -0.0033874515640315
  12    -1.4898009200441e-16
  13    -1.2217905528764e-16
  14    -9.424401527059e-17
  15    2.7449858624627e-15
  16    -6.6155615352418e-16
  17     0.010054279405645
  18    -3.2875701350002e-16
  19    -9.1123005444414e-16
  20    2.7078292790019e-15
  21    2.0895972593497e-15
  22     0.010054279405644
  23    1.3312511330582e-15
  24    -1.3832477700915e-15
 Sym= A
 Ene=     1.253606346
 Spin= Alpha
 Occup=    0.00000
   1    3.751538297541e-15
   2    8.8446894266766e-15
   3    -1.2376348939574e-14
   4    8.8662141993223e-16
   5     -0.73544038123234
   6    -1.1713075610606e-15
   7    -3.4104812339466e-16
   8       1.7615014008656
   9    9.9437503893605e-16
  10    -5.0306980803327e-17
  11    -1.4177667437272e-16
  12     0.044151968077293
  13    1.5265566588596e-16
  14    -1.5019854651528e-16
  15     -0.37755482373558
  16     -0.82307539204692
  17    -1.00044935129e-15
  18      0.30216151312584
  19      0.18682101281509
  20      0.37755482373558
  21      0.82307539204692
  22    6.8642061675609e-17
  23      0.30216151312584
  24      -0.1868210128151
 Sym= A
 Ene=     1.443230072
 Spin= Alpha
 Occup=    0.00000
   1      0.20035866455279
   2       0.5257402441843
   3      -0.4956608006504
   4    -2.8705058179293e-16
   5    4.517752611339e-15
   6     -0.13361437970016
   7    3.3935162821973e-16
   8    -6.8559713635622e-15
   9      0.74377367783159
  10     -0.11764556255004
  11    3.1244160331338e-18
  12    -2.914335439641e-16
  13    -0.0053677023629383
  14    5.498155036812e-17
  15     -0.33631343831816
  16      0.20755688711399
  17    3.9387082567711e-16
  18       0.3327644580362
  19     -0.54302672300309
  20     -0.33631343831815
  21      0.20755688711397
  22    -3.5462298884342e-16
  23      -0.3327644580362
  24     -0.54302672300309
 Sym= A
 Ene=     1.476361119
 Spin= Alpha
 Occup=    0.00000
   1    -1.3864540776632e-16
   2    -3.6221192821849e-16
   3    3.6521676331917e-16
   4    1.3357797754152e-16
   5    -6.8701243181493e-16
   6    6.9119528980907e-17
   7    -4.1727674032495e-16
   8    1.780362724407e-15
   9    -4.0959862455681e-16
  10    6.0197697903294e-17
  11    -1.2048912719045e-16
  12    -1.759880779506e-17
  13    -8.598997266363e-18
  14      0.13160040616222
  15    -2.4205824287248e-16
  16    -5.3776280407698e-16
  17      0.68558365361305
  18    -4.0769893250893e-16
  19    9.2837734210398e-16
  20    7.0560666250681e-16
  21    2.1820572786197e-16
  22     -0.68558365361305
  23    -3.5169721242758e-17
  24    -2.6872045545725e-16
 Sym= A
 Ene=     1.673295851
 Spin= Alpha
 Occup=    0.00000
   1    9.8907192877867e-17
   2    2.1247599054631e-16
   3    -5.2185734663136e-16
   4     -0.01664079885782
   5    -5.3975704830913e-16
   6    -4.2351970724031e-17
   7     -0.63470668447903
   8    1.4731453611015e-15
   9    -1.7315230167036e-16
  10    1.5812126817007e-17
  11      0.16089861237012
  12    -7.9584021667983e-18
  13    -2.4631475138152e-17
  14    -2.8842403793756e-16
  15    -2.9330413614441e-16
  16    -2.5438973162239e-16
  17      0.76646825703913
  18    -1.0191699891605e-16
  19    5.3324501242256e-16
  20    5.2255161622351e-16
  21    4.702154528798e-16
  22      0.76646825703913
  23    1.1332095423297e-16
  24    -5.5988794522183e-16
 Sym= A
 Ene=     1.867305973
 Spin= Alpha
 Occup=    0.00000
   1     -0.72567928446956
   2       -1.595974089959
   3       3.0321854295658
   4    -8.5160339982568e-16
   5    -9.9162928172322e-15
   6      0.10722768243802
   7    6.0069925386079e-16
   8    1.9511770948757e-14
   9      0.96790406718911
  10     -0.11391582351045
  11    -1.0067682178751e-18
  12    -1.0269562977783e-15
  13      0.10837093088807
  14    2.6178284902109e-17
  15      -0.8265341822251
  16     -0.38757592791309
  17    9.694528935589e-17
  18      0.37163408665825
  19    -0.020545081584349
  20     -0.82653418222509
  21     -0.38757592791309
  22    1.4916729136346e-16
  23     -0.37163408665828
  24    -0.020545081584367
 Sym= A
 Ene=     1.933871011
 Spin= Alpha
 Occup=    0.00000
   1    1.3365061220823e-14
   2    2.9082950597119e-14
   3    -5.5601221233863e-14
   4    -1.6299145238994e-16
   5    -0.009238337085116
   6    2.1372359785827e-16
   7    3.7518423899783e-16
   8      0.89799323635887
   9    -2.117056534509e-14
  10    2.843211777126e-15
  11    -2.350348696593e-16
  12     -0.02932822581243
  13    -2.171873791923e-15
  14    -1.8830071951026e-16
  15      -0.3856052966352
  16    -0.091071781883806
  17    -8.1437946013065e-16
  18      -0.4705976118906
  19      0.69373462544097
  20      0.38560529663523
  21     0.091071781883821
  22    1.221873418185e-16
  23     -0.47059761189059
  24     -0.69373462544097
 Sym= A
 Ene=       2.4478839
 Spin= Alpha
 Occup=    0.00000
   1    -4.9718908700058e-15
   2    -1.0864879103493e-14
   3    2.1807119522506e-14
   4    6.3265010063797e-16
   5      0.83628612718608
   6    9.2902313815987e-17
   7    -1.469973899001e-17
   8      0.15032649875615
   9    6.1105949973328e-15
  10    -1.8310006288935e-15
  11    2.9611599409282e-17
  12     -0.13745343665985
  13    2.6714741530043e-15
  14    -5.352987761059e-16
  15     -0.29168304119099
  16     -0.33032887948973
  17    -6.700485298819e-17
  18      0.72422548711803
  19      0.55335735123911
  20      0.29168304119098
  21      0.33032887948972
  22    -3.3971175825978e-16
  23      0.72422548711803
  24     -0.55335735123911
 Sym= A
 Ene=     2.485934281
 Spin= Alpha
 Occup=    0.00000
   1      0.27445318001352
   2      0.72176924491802
   3      0.79587336321047
   4    -2.6058394107468e-16
   5    -4.3858133905138e-16
   6      0.66922839636835
   7    2.1321196362294e-16
   8    -3.2305844558426e-15
   9      0.18066819292311
  10    -0.052547170940213
  11    -8.4721317433469e-19
  12    8.1878948066105e-16
  13      0.21640516862409
  14    1.0176878406198e-17
  15     -0.47685181348514
  16     -0.15964874753201
  17    4.0541674757587e-17
  18      0.74307896638071
  19       0.5383223838705
  20     -0.47685181348514
  21     -0.15964874753202
  22    3.3463717108357e-17
  23     -0.74307896638071
  24       0.5383223838705
 Sym= A
 Ene=     3.284934904
 Spin= Alpha
 Occup=    0.00000
   1    -3.9252008527798e-17
   2    -1.1438565827584e-16
   3    -6.2823790978386e-17
   4    -0.012341115594937
   5    -3.4354337021127e-16
   6    1.8759018814437e-16
   7      0.31070089646765
   8    -1.7458505088288e-16
   9    -3.1639822457312e-16
  10    3.9480137963848e-17
  11       1.0424802433993
  12    6.9068754383713e-17
  13    2.4655996933145e-17
  14    6.0527451089109e-16
  15    3.6192019797886e-16
  16    3.7204945596895e-16
  17     -0.39739843443704
  18    -7.6991196545269e-17
  19    -2.5902171708415e-17
  20    -8.7762079059799e-17
  21    -2.7771369258272e-16
  22     -0.39739843443704
  23    -7.611744250558e-17
  24    -5.423301491753e-17
 Sym= A
 Ene=     3.336344384
 Spin= Alpha
 Occup=    0.00000
   1    -2.9654753887478e-17
   2    -1.0334286375158e-16
   3    5.0749330684954e-17
   4    -3.5528127057599e-16
   5    1.4034268922988e-16
   6    9.5123753471154e-17
   7    2.661584721225e-17
   8    5.5205574682456e-16
   9    -2.2401874755695e-16
  10    -2.89043945896e-16
  11    -1.0429384319724e-15
  12    -2.2900327230179e-16
  13    -4.8920671559479e-17
  14       1.0653716515791
  15    -5.5333791340375e-17
  16    -6.9781490446079e-16
  17     -0.37011549716061
  18    1.7302601409327e-16
  19    1.2132341628909e-16
  20    2.1589142016262e-16
  21    7.0033783730128e-16
  22      0.37011549716061
  23    2.3368752976868e-16
  24    1.1923721497959e-16
 Sym= A
 Ene=     3.508832127
 Spin= Alpha
 Occup=    0.00000
   1     -0.08375563222318
   2     -0.15385513804335
   3      0.54679479314249
   4    6.315703309948e-17
   5    7.0368054609637e-16
   6     0.016178546118632
   7    -1.2646198585277e-16
   8    -1.3147854481554e-15
   9       0.5325912655655
  10       1.0829983558371
  11    -2.5483158193253e-17
  12    -4.6490589156178e-16
  13       0.1828292162223
  14    1.7982786608729e-16
  15       -0.300249425292
  16    -0.036645685736533
  17    -5.0280750840823e-17
  18      0.34924682752892
  19     -0.31580226109581
  20       -0.300249425292
  21    -0.036645685736535
  22    7.5893326344283e-17
  23     -0.34924682752892
  24     -0.31580226109581
 Sym= A
 Ene=     3.862386162
 Spin= Alpha
 Occup=    0.00000
   1     -0.14622483795308
   2     -0.18287550848444
   3       2.2658135438669
   4    1.8317065798943e-16
   5    -1.0804172027132e-15
   6      0.40219441850708
   7    -6.2340768954607e-17
   8    -4.7317269827164e-15
   9      0.92477121372582
  10      0.14348612198348
  11    -1.9393684133044e-17
  12    -5.8841820305133e-15
  13      -1.1575251552878
  14    -8.1982704242707e-18
  15      -1.2341187970935
  16     -0.19177873125801
  17    4.4655074442965e-18
  18      0.62023486195867
  19      0.49126326742328
  20      -1.2341187970935
  21     -0.19177873125802
  22    4.6804832086004e-18
  23     -0.62023486195867
  24      0.49126326742329
 Sym= A
 Ene=     4.146386638
 Spin= Alpha
 Occup=    0.00000
   1    -1.7941099579955e-15
   2    -3.3739232148849e-15
   3    1.4548403432846e-14
   4    -1.2364617551553e-16
   5      0.46493382053821
   6    9.2374243920632e-16
   7    1.9979614171087e-16
   8       1.1408072359587
   9    5.8379437769794e-15
  10    8.7777007884426e-16
  11    -2.1684143659853e-17
  12       1.3251016016562
  13    -4.9404924595819e-15
  14      2.6586957554e-16
  15       -1.080636544554
  16     -0.28806650240059
  17    -2.959045267043e-17
  18      0.60403867902534
  19      0.49460052011424
  20        1.080636544554
  21      0.28806650240059
  22    6.2215821185856e-17
  23      0.60403867902533
  24     -0.49460052011423
