[Molden Format]
made by pyscf v[2.2.0]
[Atoms] (AU)
O   1   8     0.00000000000000     0.00000000000000    -0.13209669380598
H   2   1     0.00000000000000     1.43152878538173     0.97970006890258
H   3   1     0.00000000000000    -1.43152878538173     0.97970006890258
[GTO]
1 0
 s    8 1.00
                 11720  0.00070964594651845
                  1759  0.0054672722921914
                 400.8   0.027823118610189
                 113.7    0.10474773971146
                 37.03    0.28292084635691
                 13.27    0.44849523869833
                 5.025    0.27081688521277
                 1.013    0.01545029160744
 s    8 1.00
                 11720  -0.00031444341168873
                  1759  -0.0024821376810179
                 400.8  -0.012316355381583
                 113.7  -0.050538917343672
                 37.03   -0.13938490331632
                 13.27   -0.32507749481778
                 5.025   -0.22984830758785
                 1.013     1.0953793467883
 s    1 1.00
                0.3023                   1
 p    3 1.00
                  17.7   0.062679166281506
                 3.854    0.33353656587936
                 1.046    0.74123964163973
 p    1 1.00
                0.2753                   1
 d    1 1.00
                 1.185                   1

2 0
 s    3 1.00
                 13.01   0.033498726389998
                 1.962    0.23480080117413
                0.4446     0.8136829578829
 s    1 1.00
                 0.122                   1
 p    1 1.00
                 0.727                   1

3 0
 s    3 1.00
                 13.01   0.033498726389998
                 1.962    0.23480080117413
                0.4446     0.8136829578829
 s    1 1.00
                 0.122                   1
 p    1 1.00
                 0.727                   1

[5d]
[7f]
[9g]

 Sym= A
 Ene=    -20.55086577
 Spin= Beta
 Occup=    1.00000
   1        1.000895544523
   2     0.001163239707686
   3    -0.0026772237454747
   4    1.7365863357862e-18
   5    9.0310304350289e-19
   6    0.0017588952829197
   7    -7.0320781728708e-19
   8    -5.8718425243396e-18
   9    -0.00049010294697264
  10    1.1164117183938e-05
  11    -5.6777662600553e-20
  12    1.0164395367052e-18
  13    -0.00013346572331527
  14    -1.0219945335729e-18
  15    -0.00023045267269986
  16    0.00042142422558658
  17    2.3082628622068e-19
  18    0.00056521890639621
  19    0.00047891586735838
  20    -0.00023045267269986
  21    0.00042142422558658
  22    -1.6704871775636e-19
  23    -0.00056521890639619
  24    0.00047891586735839
 Sym= A
 Ene=    -1.335862421
 Spin= Beta
 Occup=    1.00000
   1    -0.0081249557825225
   2      0.44308908138285
   3      0.37691302156671
   4    1.3978708140187e-16
   5    -4.7714205580503e-16
   6       0.0786205548571
   7    3.1454957891537e-17
   8    -1.1613343859423e-15
   9    -0.012857535658956
  10    0.0012618012992982
  11    9.4525910641331e-18
  12    -2.4980018054066e-16
  13    -0.0029831775799512
  14    -1.2555940217249e-17
  15      0.19290446882632
  16     0.010123550158065
  17    1.7905886195673e-17
  18    -0.037166611024484
  19    -0.020504283121381
  20      0.19290446882631
  21     0.010123550158062
  22    -5.8146645696417e-18
  23     0.037166611024483
  24     -0.02050428312138
 Sym= A
 Ene=    -0.697925187
 Spin= Beta
 Occup=    1.00000
   1    -1.6400099889276e-16
   2    1.8519733971916e-16
   3    1.1508992843564e-15
   4    -8.4738865660764e-16
   5         0.48982277679
   6    -8.5626027741036e-16
   7    -5.7284971178438e-16
   8      0.22274597705917
   9    -1.2189113380506e-15
  10    -1.0408340855861e-17
  11    -1.8449636184246e-16
  12     0.026762185215628
  13    -2.0816681711722e-16
  14    7.3519710451897e-17
  15      0.32749283910342
  16     0.090283685897562
  17    -4.3085198960938e-17
  18    -0.023258376745528
  19     -0.03267439608168
  20     -0.32749283910342
  21    -0.090283685897562
  22    -7.9230961911345e-17
  23    -0.023258376745528
  24      0.03267439608168
 Sym= A
 Ene=   -0.5665915565
 Spin= Beta
 Occup=    1.00000
   1    0.0021795052331941
   2     -0.15046375366494
   3      -0.3496897177323
   4    -5.950043673698e-16
   5    1.0764612118887e-15
   6      0.54507455252399
   7    -3.6621472537064e-16
   8    1.6875283610126e-15
   9      0.36504265911884
  10     0.017871237722483
  11    8.2976081702422e-18
  12    2.4980018054066e-16
  13    -0.0045866967329252
  14    2.4386143121157e-17
  15      0.20671111516232
  16     0.040714295569006
  17    -1.0823144738884e-17
  18    -0.031789842773367
  19    0.0074150695982684
  20      0.20671111516232
  21     0.040714295569007
  22    -3.4042530745778e-17
  23     0.031789842773367
  24     0.007415069598268
 Sym= A
 Ene=   -0.4930754003
 Spin= Beta
 Occup=    1.00000
   1    1.0737893067475e-17
   2    -9.2269874618161e-17
   3    -9.6973264731488e-17
   4      0.63125926121757
   5    2.0924597244755e-16
   6    4.2343417018184e-16
   7      0.49570216143973
   8    4.5562783850932e-17
   9    5.9853199768559e-16
  10    -1.1750227688792e-17
  11     0.018196983592493
  12    2.9591733092099e-16
  13    -1.0058176576026e-16
  14    -1.6904744474719e-16
  15    1.1562922446955e-15
  16    -3.8934632291582e-16
  17     0.031015655089912
  18    -2.7006228248343e-16
  19    -1.9269358990195e-16
  20    -7.7230336587805e-16
  21    -1.3574312753093e-16
  22     0.031015655089912
  23    -2.6580209326245e-16
  24    1.6718239115171e-16
 Sym= A
 Ene=     0.185210069
 Spin= Beta
 Occup=    0.00000
   1    -0.052032404718778
   2     0.072547019879341
   3       1.0005065841919
   4    -1.5503062556361e-16
   5    -1.4408763486385e-16
   6      0.19138183519441
   7    -1.2781032268876e-16
   8    2.9785067157641e-15
   9       0.3381777981911
  10    0.0075818761661529
  11    7.9204389282289e-18
  12    -1.7520707107366e-16
  13    -0.0098748629910391
  14    6.7342302256742e-17
  15    -0.059141579531713
  16     -0.82835687726862
  17    1.1207459061398e-17
  18     0.017368734764591
  19     0.016258221398427
  20    -0.059141579531709
  21     -0.82835687726862
  22    -5.5406250053831e-17
  23    -0.017368734764593
  24     0.016258221398427
 Sym= A
 Ene=    0.2559925343
 Spin= Beta
 Occup=    0.00000
   1    2.2174214111435e-15
   2    5.4778907198543e-15
   3    -6.416555997625e-15
   4    2.5244394088573e-16
   5      0.28380972296421
   6    -7.2279982210056e-16
   7    -1.5172359960888e-16
   8      0.67073150831225
   9    -1.0825857278739e-16
  10    -2.764715539838e-18
  11    4.6511228177707e-16
  12     0.021107448846988
  13    2.8102520310824e-16
  14    1.7922832951558e-16
  15    -0.026513935445838
  16      -1.4417260837658
  17    -1.3106905391312e-16
  18     0.020678154351776
  19     0.016979856125785
  20     0.026513935445839
  21       1.4417260837658
  22    1.6832580440437e-16
  23     0.020678154351775
  24    -0.016979856125785
 Sym= A
 Ene=    0.7873164879
 Spin= Beta
 Occup=    0.00000
   1    -3.2535023462315e-15
   2    -8.9751926889029e-15
   3    1.125367551698e-14
   4    7.1751078119871e-16
   5      0.26796409959115
   6    -2.7579450244001e-15
   7    -1.5536911914425e-17
   8      0.45789239313406
   9    -1.2830645663691e-16
  10    3.4694469519536e-17
  11    -1.0924432221897e-16
  12     -0.11154935457112
  13    -1.2628786905111e-15
  14    1.4966178734184e-16
  15     -0.94415230515259
  16      0.68974149194448
  17    -9.1888994107291e-17
  18    -0.073487267981118
  19     -0.15191476523347
  20       0.9441523051526
  21      -0.6897414919445
  22    4.6500456407076e-17
  23    -0.073487267981124
  24      0.15191476523348
 Sym= A
 Ene=    0.8533540363
 Spin= Beta
 Occup=    0.00000
   1    -0.065895836938344
   2     -0.25682532146263
   3      0.32250505281487
   4    -5.8431021605342e-16
   5    -3.7866311023602e-15
   6      -0.3305874625536
   7    4.6944091012597e-16
   8    -1.9264005299727e-15
   9     0.010289254660459
  10    0.0012660756237548
  11    -3.2633195935671e-17
  12    1.3600232051658e-15
  13     -0.10671468655125
  14    -8.1947862007076e-18
  15      0.78804780947191
  16     -0.54920412636353
  17    6.2140634137788e-17
  18      0.29486501187758
  19     0.059987088355404
  20      0.78804780947189
  21     -0.54920412636351
  22    -4.8444025409853e-17
  23     -0.29486501187758
  24       0.0599870883554
 Sym= A
 Ene=     1.163782179
 Spin= Beta
 Occup=    0.00000
   1    0.0036283552421905
   2      0.11603358365116
   3      0.74311496841895
   4    1.1726633980453e-14
   5    4.2238893335512e-15
   6      -0.7539915449459
   7    -1.2636524234108e-14
   8    -1.4383697121747e-14
   9       1.2770634057018
  10     0.013055455024807
  11    3.1315737512428e-17
  12    -1.2767564783189e-15
  13    0.0071206784571421
  14    4.5027671409011e-17
  15     -0.54544788173405
  16      -0.1120838867668
  17    -2.5053420579519e-16
  18     0.082664254078945
  19      0.25234546908879
  20     -0.54544788173406
  21     -0.11208388676682
  22    3.2488945516122e-17
  23    -0.082664254078954
  24       0.2523454690888
 Sym= A
 Ene=     1.200317916
 Spin= Beta
 Occup=    0.00000
   1    -4.7033177739409e-16
   2    2.5519971360058e-16
   3    1.0941274978432e-14
   4     -0.96782661995092
   5    -1.8681952860557e-15
   6    -8.9876576837562e-15
   7       1.0236401046628
   8    5.6086875080788e-15
   9    1.5280537483294e-14
  10    5.3772723452038e-16
  11    -0.0033872219746834
  12    2.7922394274934e-17
  13    2.7518618397251e-16
  14    -2.1086504663201e-16
  15    -8.8120483200825e-15
  16    -3.798976408274e-15
  17     0.010054628758705
  18    1.9261034238799e-15
  19    4.2976408086466e-15
  20    -5.358857621177e-15
  21    8.387811276304e-16
  22     0.010054628758707
  23    6.281302281969e-16
  24    3.2978227707994e-15
 Sym= A
 Ene=      1.25360601
 Spin= Beta
 Occup=    0.00000
   1    4.5296624261717e-15
   2    1.1092116553304e-14
   3    -1.3012541571089e-14
   4    3.0415755773565e-15
   5     -0.73543998118334
   6    -6.7313967890911e-15
   7    -3.4566234466254e-15
   8       1.7615023110816
   9    4.8756453522026e-15
  10    2.2030988144905e-16
  11    -3.1812731656805e-17
  12     0.044151962105541
  13    6.0368376963993e-16
  14    -7.0475287387718e-17
  15     -0.37755565092342
  16     -0.82307500914976
  17    8.4393308086443e-16
  18      0.30216116848371
  19       0.1868206677661
  20      0.37755565092342
  21      0.82307500914976
  22    -3.2688847389146e-16
  23      0.30216116848372
  24     -0.18682066776609
 Sym= A
 Ene=     1.443229679
 Spin= Beta
 Occup=    0.00000
   1      0.20035896179538
   2      0.52574077000398
   3     -0.49566155065548
   4    -1.2942926935745e-15
   5    1.3331049632099e-15
   6     -0.13361501042912
   7    1.2739786008004e-15
   8    -1.9835169815229e-15
   9      0.74377454281594
  10     -0.11764544100303
  11    5.7184520155156e-17
  12    -5.4123372450476e-16
  13    -0.0053678735166665
  14    -7.0031193608829e-16
  15     -0.33631317759796
  16      0.20755691822687
  17    -4.311035581745e-15
  18      0.33276463286543
  19     -0.54302639902819
  20     -0.33631317759796
  21      0.20755691822686
  22    4.6639911865495e-15
  23     -0.33276463286543
  24     -0.54302639902819
 Sym= A
 Ene=     1.476360975
 Spin= Beta
 Occup=    0.00000
   1    1.365420053763e-15
   2    3.5592641828401e-15
   3    -3.4633863551337e-15
   4    -1.4460523984735e-15
   5    8.7786210749498e-16
   6    -1.0568122831827e-15
   7    -2.5049454879987e-16
   8    -1.813228654697e-15
   9    5.0225781311911e-15
  10    -7.6521381089246e-16
  11    1.2312110115449e-16
  12    -3.3359518719391e-17
  13    -2.2100186106456e-17
  14      0.13160042231096
  15    -1.9930523540722e-15
  16    2.2641171885712e-15
  17       0.6855836480029
  18    1.892079909288e-15
  19    -3.6985165559882e-15
  20    -2.6596087552292e-15
  21    8.1643982330154e-16
  22     -0.68558364800289
  23    -2.4211727580662e-15
  24    -3.3882517403108e-15
 Sym= A
 Ene=      1.67329572
 Spin= Beta
 Occup=    0.00000
   1    -7.3136660769763e-18
   2    -3.9058517560941e-17
   3    -8.5693394548898e-17
   4    -0.016640256780665
   5    3.4309516756774e-16
   6    1.4666825210413e-17
   7     -0.63470725266201
   8    -1.4823635174095e-15
   9    -2.5661261323048e-16
  10    3.3851873911819e-17
  11      0.16089843545432
  12    5.8092194822777e-17
  13    -6.9493029052493e-18
  14    -7.6029018623323e-16
  15    5.9842091352602e-16
  16    5.6893080439791e-16
  17       0.7664683217094
  18    5.3885831524585e-16
  19    -7.4791759709156e-16
  20    -3.0663049609098e-16
  21    -6.3739005384333e-16
  22       0.7664683217094
  23    7.6014503715996e-16
  24    9.6241615146176e-16
 Sym= A
 Ene=      1.86730607
 Spin= Beta
 Occup=    0.00000
   1     -0.72567921838302
   2       -1.595973897126
   3       3.0321856442125
   4    5.5040588972392e-16
   5    -9.9097303480749e-15
   6      0.10722734282391
   7    -5.9954829121011e-16
   8    1.3499864144012e-14
   9      0.96790469561256
  10     -0.11391546755715
  11    2.8809218258236e-17
  12    -3.0531133177192e-16
  13      0.10837100642558
  14    -2.954695592864e-19
  15      -0.8265344318822
  16     -0.38757594717574
  17    9.1723087772119e-17
  18      0.37163453232947
  19    -0.020545328411241
  20      -0.8265344318822
  21     -0.38757594717572
  22    -1.1731733022924e-17
  23     -0.37163453232948
  24    -0.020545328411245
 Sym= A
 Ene=     1.933870846
 Spin= Beta
 Occup=    0.00000
   1    5.5230895709154e-15
   2    1.2120933210332e-14
   3    -2.0938385403922e-14
   4    -4.5350143020106e-16
   5    -0.0092382082199048
   6    1.4317126681614e-15
   7    -5.2606651176769e-16
   8      0.89799324367178
   9    -7.7625406265331e-15
  10    8.6389229103645e-16
  11    -1.6305610677385e-16
  12    -0.029328302911277
  13    -5.0653925498523e-16
  14    -1.1437451207434e-16
  15      -0.3856054285106
  16    -0.091071768367219
  17    1.0528478698854e-15
  18     -0.47059756423931
  19      0.69373465011284
  20       0.3856054285106
  21     0.091071768367227
  22    1.1114520598491e-15
  23     -0.47059756423931
  24     -0.69373465011284
 Sym= A
 Ene=     2.447883632
 Spin= Beta
 Occup=    0.00000
   1    -5.5983971211454e-15
   2    -1.2713915904887e-14
   3    1.3564677878094e-14
   4    3.3980272239078e-16
   5      0.83628573278041
   6    -4.0199357431516e-15
   7      2.4742256106e-16
   8      0.15032700490804
   9    5.1001816513172e-15
  10    -1.3947176746854e-15
  11    9.4252223785797e-16
  12     -0.13745323828879
  13    1.4085954624932e-15
  14    2.3190568627528e-16
  15     -0.29168327454002
  16     -0.33032912321715
  17    -6.3602857943135e-16
  18       0.7242257440102
  19      0.55335742544534
  20      0.29168327454002
  21      0.33032912321715
  22    -3.0609916689489e-16
  23      0.72422574401021
  24     -0.55335742544535
 Sym= A
 Ene=     2.485934622
 Spin= Beta
 Occup=    0.00000
   1      0.27445330456183
   2      0.72176949128645
   3       0.7958720539719
   4    8.499667140064e-17
   5    4.3725102598166e-15
   6      0.66922914079801
   7    -1.8561055360104e-16
   8    -1.5405903065327e-15
   9      0.18066732769563
  10    -0.052547335282713
  11    2.5783988347679e-17
  12    1.3877787807814e-16
  13      0.21640542895725
  14    -1.8981173426883e-17
  15     -0.47685124384028
  16     -0.15964855291938
  17    2.2658348553397e-17
  18      0.74307854347812
  19      0.53832220281453
  20     -0.47685124384027
  21     -0.15964855291938
  22    -8.3629727038576e-18
  23     -0.74307854347812
  24      0.53832220281453
 Sym= A
 Ene=     3.284935558
 Spin= Beta
 Occup=    0.00000
   1    -2.3783167772875e-18
   2    -1.0596866219007e-17
   3    -2.2191756640073e-17
   4    -0.012340908876296
   5    -5.7259120519147e-16
   6    -5.9436631699155e-17
   7      0.31070070477762
   8    7.1516454057401e-16
   9    1.2635801214908e-17
  10    5.3725687517414e-17
  11       1.0424802737644
  12    9.2352505713116e-16
  13    2.8598890834454e-18
  14    -5.2381390540837e-15
  15    -5.5073427870314e-16
  16    7.2813507927739e-16
  17     -0.39739830008039
  18    -3.4372213020057e-16
  19    -7.5272126652234e-17
  20    5.8860517912354e-16
  21    -7.2474129517626e-16
  22      -0.3973983000804
  23    -3.3391586184802e-16
  24    5.4146410279493e-17
 Sym= A
 Ene=     3.336343955
 Spin= Beta
 Occup=    0.00000
   1    -6.3064181760495e-18
   2    -2.398694587032e-17
   3    -1.0467594435767e-17
   4    4.7537076499585e-17
   5    -9.7479193452625e-16
   6    -1.4055480149298e-16
   7    1.7156575752212e-15
   8    3.8856509560631e-16
   9    1.4833514693175e-16
  10    -5.0039510650819e-17
  11    5.7622070051503e-15
  12    7.1384779570173e-17
  13    3.1940154511366e-17
  14       1.0653716495843
  15    9.9918748404577e-17
  16    2.5457368182229e-16
  17     -0.37011550755259
  18    -4.614053346388e-16
  19    -3.6618439120778e-16
  20    -2.7157746159363e-16
  21    2.3118684525682e-17
  22      0.37011550755259
  23    -5.5337905430776e-16
  24    3.3510152757456e-16
 Sym= A
 Ene=     3.508832777
 Spin= Beta
 Occup=    0.00000
   1    -0.083755153026346
   2     -0.15385404204672
   3      0.54679158387716
   4    3.1293480698434e-16
   5    2.3006365557891e-16
   6     0.016178271781486
   7    -3.6885604774352e-16
   8    -6.5751353900883e-16
   9      0.53258992046269
  10       1.0829982456087
  11    -5.3541754171297e-17
  12    -9.2981178312357e-16
  13      0.18283044587579
  14    -2.2674780557206e-17
  15     -0.30024790863537
  16    -0.036645388348138
  17    2.8924481425973e-17
  18      0.34924606498824
  19     -0.31580269052555
  20     -0.30024790863537
  21    -0.036645388348138
  22    3.5604288849319e-18
  23     -0.34924606498824
  24     -0.31580269052555
 Sym= A
 Ene=     3.862385964
 Spin= Beta
 Occup=    0.00000
   1     -0.14622488339716
   2     -0.18287557373356
   3       2.2658142345381
   4    -1.5188795079743e-16
   5    -1.8235296877008e-15
   6      0.40219482137286
   7    2.4921016748927e-17
   8    -4.7626671637303e-15
   9      0.92477166082384
  10      0.14348726764559
  11    3.2504462100655e-18
  12    -7.8270723236074e-15
  13      -1.1575249032072
  14    2.3474010819725e-17
  15      -1.2341191705583
  16     -0.19177879730572
  17    5.2912843201607e-19
  18      0.62023533885149
  19      0.49126306460869
  20      -1.2341191705583
  21     -0.19177879730572
  22    5.5027557108814e-18
  23     -0.62023533885149
  24      0.49126306460869
 Sym= A
 Ene=     4.146386887
 Spin= Beta
 Occup=    0.00000
   1    -1.8861022155911e-15
   2    -3.2042819745654e-15
   3    1.7633408051141e-14
   4    -1.8368364046953e-16
   5      0.46493374088205
   6    1.626140051703e-15
   7    -1.2490379629631e-16
   8       1.1408071789933
   9     7.89084708317e-15
  10    1.3392065234541e-15
  11    -7.3319681097031e-16
  12       1.3251016231556
  13    -6.8278716014447e-15
  14    1.2757821957293e-16
  15      -1.0806364569607
  16     -0.28806647290035
  17    9.2200562210501e-17
  18      0.60403855779338
  19      0.49460046767534
  20       1.0806364569607
  21      0.28806647290035
  22    1.9922786200776e-16
  23      0.60403855779337
  24     -0.49460046767534
