[Molden Format]
made by pyscf v[2.2.0]
[Atoms] (AU)
O   1   8     0.00000000000000     0.00000000000000    -0.13209669380598
H   2   1     0.00000000000000     1.43152878538173     0.97970006890258
H   3   1     0.00000000000000    -1.43152878538173     0.97970006890258
[GTO]
1 0
 s    8 1.00
                 11720  0.00070964594651845
                  1759  0.0054672722921914
                 400.8   0.027823118610189
                 113.7    0.10474773971146
                 37.03    0.28292084635691
                 13.27    0.44849523869833
                 5.025    0.27081688521277
                 1.013    0.01545029160744
 s    8 1.00
                 11720  -0.00031444341168873
                  1759  -0.0024821376810179
                 400.8  -0.012316355381583
                 113.7  -0.050538917343672
                 37.03   -0.13938490331632
                 13.27   -0.32507749481778
                 5.025   -0.22984830758785
                 1.013     1.0953793467883
 s    1 1.00
                0.3023                   1
 p    3 1.00
                  17.7   0.062679166281506
                 3.854    0.33353656587936
                 1.046    0.74123964163973
 p    1 1.00
                0.2753                   1
 d    1 1.00
                 1.185                   1

2 0
 s    3 1.00
                 13.01   0.033498726389998
                 1.962    0.23480080117413
                0.4446     0.8136829578829
 s    1 1.00
                 0.122                   1
 p    1 1.00
                 0.727                   1

3 0
 s    3 1.00
                 13.01   0.033498726389998
                 1.962    0.23480080117413
                0.4446     0.8136829578829
 s    1 1.00
                 0.122                   1
 p    1 1.00
                 0.727                   1

[5d]
[7f]
[9g]

[MO]
 Sym= A
 Ene=    -20.55384019
 Spin= Alpha
 Occup=    1.00000
   1       1.0011090606546
   2    0.0017376003668062
   3    -0.0030672238978661
   4    9.1799773718713e-19
   5    6.5467520136432e-17
   6    0.0017408463749678
   7    4.2646023498922e-19
   8    -4.9646623503286e-17
   9    -0.00044238026314907
  10    1.5217103976853e-05
  11    9.8000881592823e-20
  12    7.2017613838531e-17
  13    -0.00017392380266685
  14    1.9682683896517e-18
  15    -0.00029707165593773
  16    0.00045105523148484
  17    -5.6825791622074e-19
  18    0.00060518676948193
  19    0.00051539487902293
  20    -0.00029707165593799
  21    0.00045105523148525
  22    4.037008377395e-19
  23    -0.00060518676948185
  24    0.00051539487902276
 Sym= A
 Ene=    -1.372063503
 Spin= Alpha
 Occup=    1.00000
   1     0.006627271896146
   2     -0.44486460696902
   3     -0.36869355948211
   4    -5.8974759170593e-16
   5    8.9174646189021e-16
   6    -0.087233823018625
   7    -4.1786905412901e-16
   8    2.5319166972812e-15
   9     0.015954879600046
  10    -0.0013707481066311
  11    -3.6699431082627e-17
  12    2.7613363827497e-16
  13    0.0035651701616697
  14    -4.7053733482407e-17
  15     -0.19495520383227
  16     -0.01340359115987
  17    -1.6575561528205e-17
  18     0.036292752051511
  19     0.019637152453822
  20     -0.19495520383227
  21    -0.013403591159869
  22    -5.2386121180636e-17
  23    -0.036292752051511
  24     0.019637152453822
 Sym= A
 Ene=   -0.7604953718
 Spin= Alpha
 Occup=    1.00000
   1    -3.220712120983e-16
   2    -5.5206284320282e-16
   3    1.5328008546685e-15
   4    6.4845817269091e-16
   5      0.49790923510149
   6    5.9868135709349e-16
   7    -1.5024065722857e-16
   8      0.21192456835449
   9    1.0269889053372e-15
  10    -3.0753476790451e-17
  11    -5.4131119611869e-18
  12     0.025912297734902
  13    5.3094724533809e-17
  14    7.6088755103071e-17
  15      0.32702608405622
  16     0.099303716463473
  17    -1.0267573178635e-16
  18    -0.019187654106465
  19    -0.030159779012644
  20     -0.32702608405622
  21    -0.099303716463473
  22    -5.2570891904307e-17
  23    -0.019187654106466
  24     0.030159779012645
 Sym= A
 Ene=    -0.625297268
 Spin= Alpha
 Occup=    1.00000
   1    0.0043216680966012
   2     -0.15041151003724
   3     -0.35684637206043
   4    -1.717464023253e-16
   5    -6.7367672008529e-16
   6      0.54574302292539
   7    -1.0895594614676e-16
   8    -6.0985630909062e-16
   9      0.36149490739301
  10     0.018017020774347
  11    2.1178486522893e-17
  12    4.5528520067505e-18
  13    -0.0039617382546869
  14    -3.5728780817509e-17
  15      0.20573154367859
  16     0.044580539346011
  17    -9.0108014774125e-18
  18    -0.028825575334049
  19     0.011854520265305
  20      0.20573154367859
  21     0.044580539346013
  22    1.0462442439417e-17
  23     0.028825575334049
  24     0.011854520265305
 Sym= A
 Ene=   -0.5494663254
 Spin= Alpha
 Occup=    1.00000
   1    -2.0271584563035e-17
   2    1.2545155191193e-16
   3    -1.4918993201817e-16
   4     -0.62808909589493
   5    1.798465445679e-16
   6    -2.2595138578821e-16
   7      -0.4968832332316
   8    7.677925909974e-16
   9    -2.7270402446901e-16
  10    4.7561308442312e-17
  11    -0.018396266821822
  12    -2.7207224863614e-17
  13    2.887077295681e-17
  14    1.0957379394587e-16
  15    -6.1793292223651e-17
  16    4.0023071110226e-16
  17    -0.033599439970387
  18    -2.39456395081e-16
  19    3.0118463767543e-18
  20    3.6103588905435e-16
  21    1.2077189720044e-16
  22    -0.033599439970387
  23    -8.3469090151474e-17
  24    -1.7637720827879e-16
 Sym= A
 Ene=    0.1949429143
 Spin= Alpha
 Occup=    0.00000
   1    -0.055446911443113
   2      0.06385816132881
   3       1.0124104598048
   4    -6.844763337629e-19
   5    -1.8114791451593e-15
   6      0.18391069982599
   7    -1.1148173970304e-16
   8    -6.5952805801946e-15
   9      0.34841296698585
  10    0.0079088329586643
  11    1.2925106636552e-17
  12    -8.0525923040625e-16
  13    -0.011375523236789
  14    1.7041767076561e-18
  15    -0.047680240771298
  16     -0.83782089079703
  17    -1.6875825458639e-17
  18     0.020139617221587
  19     0.018361272384707
  20    -0.047680240771306
  21     -0.83782089079704
  22    -5.2368653199341e-18
  23     -0.02013961722159
  24     0.018361272384709
 Sym= A
 Ene=    0.2681714387
 Spin= Alpha
 Occup=    0.00000
   1    -6.1783298698228e-16
   2    -2.4692028053618e-15
   3    -2.0530472946816e-15
   4    5.8723208690182e-17
   5     -0.27103781707925
   6    -1.0675979457534e-15
   7    -1.1112579679293e-16
   8      -0.6810529175126
   9    -3.5822421900513e-16
  10    -1.8413153983556e-16
  11    6.5167556371853e-17
  12    -0.023338643059802
  13    -3.2261376694867e-16
  14    -5.251159657977e-16
  15    0.0096310727390154
  16       1.4621268620936
  17    5.1225431520509e-16
  18    -0.023476747118384
  19    -0.020085149145699
  20    -0.0096310727390168
  21      -1.4621268620936
  22    -3.2624943006117e-16
  23    -0.023476747118382
  24     0.020085149145699
 Sym= A
 Ene=    0.8023076456
 Spin= Alpha
 Occup=    0.00000
   1    -1.448313158637e-15
   2    -2.9679455555531e-15
   3    9.5008417107014e-15
   4    -4.8296179737742e-16
   5      0.25685712192209
   6    -1.156991298053e-15
   7    4.3745185722945e-16
   8      0.49969518355464
   9    3.8894370255494e-15
  10    1.8320391132758e-16
  11    1.3354353178478e-16
  12      -0.1092705640657
  13    -1.2821544607624e-15
  14    -1.2201388461826e-17
  15     -0.94964681095205
  16      0.64997601567024
  17    -6.0171870433999e-16
  18    -0.071237149456895
  19     -0.15096130644118
  20      0.94964681095205
  21     -0.64997601567025
  22    1.0350162942618e-15
  23    -0.071237149456898
  24      0.15096130644118
 Sym= A
 Ene=    0.8687296387
 Spin= Alpha
 Occup=    0.00000
   1    -0.062987989401401
   2     -0.25435811724352
   3      0.29416536696965
   4    7.8689769118163e-16
   5    -1.1638280401274e-15
   6     -0.31544653903282
   7    -1.1854295091737e-15
   8    -4.9321035666385e-15
   9    -0.019901451172643
  10    0.00088453984483801
  11    -1.1478039363408e-17
  12    -7.1575344303959e-17
  13     -0.10556773286207
  14    -3.1779219010994e-17
  15      0.79710312019172
  16     -0.53424555311595
  17    -2.9286978971911e-17
  18      0.29710898521156
  19     0.056077436180449
  20      0.79710312019171
  21     -0.53424555311594
  22    6.1236500575312e-17
  23     -0.29710898521156
  24     0.056077436180449
 Sym= A
 Ene=     1.183356294
 Spin= Alpha
 Occup=    0.00000
   1    0.0039790187934414
   2    -0.098003384171353
   3      -0.7760273515452
   4    5.777202568535e-15
   5    -7.8079631975421e-15
   6       0.7593939132215
   7    -5.9794086460759e-15
   8    2.0903016123404e-14
   9       -1.283325629017
  10    -0.011969732640146
  11    -5.5337279906123e-17
  12    3.4319947015719e-16
  13    -0.0041201859606596
  14    -1.0622482472332e-17
  15      0.53735629321347
  16      0.12186742369177
  17    4.302486362893e-17
  18     -0.09304728150676
  19     -0.25544768810921
  20      0.53735629321348
  21      0.12186742369178
  22    3.8435942708104e-17
  23     0.093047281506767
  24     -0.25544768810922
 Sym= A
 Ene=     1.229368223
 Spin= Alpha
 Occup=    0.00000
   1    -5.7170736874838e-16
   2    -6.8562166424701e-16
   3    6.2160687739227e-15
   4       0.9696612174416
   5    -3.1594735149847e-14
   6    -3.9030293359796e-15
   7      -1.0272707539382
   8    7.5543867912156e-14
   9    6.918327308886e-15
  10    1.7011061460667e-16
  11    0.0049640413573997
  12    1.960527479769e-15
  13    2.7378194437852e-16
  14    -2.3045104829259e-16
  15    -2.0571537144318e-14
  16    -3.4294436809743e-14
  17    -0.0036148062435318
  18    1.3027966315927e-14
  19    1.0262238058633e-14
  20    1.2479284460382e-14
  21    3.3541587905264e-14
  22    -0.0036148062435267
  23    1.3197224334357e-14
  24    -5.6993725591394e-15
 Sym= A
 Ene=     1.265391456
 Spin= Alpha
 Occup=    0.00000
   1    -5.8882199647338e-15
   2    -1.4562753125704e-14
   3    1.5388869909117e-14
   4     4.37639753359e-14
   5      0.73786877182704
   6    1.0338402234758e-14
   7    -4.7387375880614e-14
   8      -1.7505253629629
   9    -9.794627382643e-15
  10    -2.5061006601801e-16
  11    -9.3548170965095e-17
  12    -0.047528351940881
  13    -2.7465560835851e-16
  14    -5.8714217881092e-16
  15      0.36292732995684
  16      0.81912368092675
  17    -2.7479832401862e-15
  18     -0.30497343606218
  19     -0.19225458793247
  20     -0.36292732995684
  21     -0.81912368092675
  22    5.6849901886239e-15
  23     -0.30497343606218
  24      0.19225458793247
 Sym= A
 Ene=      1.44931585
 Spin= Alpha
 Occup=    0.00000
   1     -0.19521322848606
   2     -0.51490107084032
   3      0.47645914047795
   4    -1.2720205560244e-15
   5    -2.8266971666655e-15
   6      0.13284657117948
   7    1.4351275931575e-15
   8    4.9601978801575e-15
   9      -0.7535143646656
  10      0.11606899949088
  11    -4.5260723165116e-17
  12    -2.2335081460639e-16
  13    0.0044984627139495
  14    -6.4589271619256e-16
  15      0.34248699226596
  16     -0.20474377138146
  17    -2.8623126676558e-15
  18     -0.33374637202325
  19      0.54452814111598
  20      0.34248699226596
  21     -0.20474377138146
  22    2.991345041069e-15
  23      0.33374637202325
  24      0.54452814111599
 Sym= A
 Ene=      1.48150455
 Spin= Alpha
 Occup=    0.00000
   1    -8.7313257648461e-16
   2    -2.2769688597873e-15
   3    2.2934026867988e-15
   4    4.4179670885806e-15
   5    5.8428460604214e-15
   6    6.2341626978864e-16
   7    2.7910916968788e-14
   8    -9.8825427775866e-15
   9    -3.2237149973038e-15
  10    5.0680151533782e-16
  11    -8.3949228305225e-15
  12    -5.9134863151463e-16
  13    -8.9163332410842e-22
  14       0.1290163480745
  15    1.8574541861737e-15
  16    4.2252308758166e-15
  17      0.68647921795341
  18    -2.7725728370573e-15
  19    6.9615577103555e-16
  20    1.1913593349206e-15
  21    -6.3296727751916e-15
  22     -0.68647921795349
  23    7.1970189483563e-17
  24    4.0908091390668e-15
 Sym= A
 Ene=     1.677087637
 Spin= Alpha
 Occup=    0.00000
   1    3.1805834166027e-17
   2    6.1734816953099e-17
   3    -1.4790865793833e-16
   4     0.026711875096087
   5    1.9398623557694e-15
   6    3.913911075287e-17
   7      0.62851938288371
   8    -1.3574525163698e-15
   9    -1.23463515947e-16
  10    2.0368676997146e-17
  11     -0.15813615469138
  12    -3.4382452027762e-16
  13    -2.2832276499762e-17
  14    -7.3281799189041e-15
  15    -7.4013418668025e-16
  16    2.0131081194798e-15
  17     -0.76743694796181
  18    -7.4284468458475e-16
  19    1.2121655639402e-15
  20    9.3062355719844e-16
  21    -2.0030034905006e-15
  22     -0.76743694796174
  23    -7.0115010142301e-16
  24    -1.1469034126947e-15
 Sym= A
 Ene=     1.875906968
 Spin= Alpha
 Occup=    0.00000
   1      0.72663857479987
   2       1.5998863559972
   3      -3.0295833866403
   4    7.9387491559287e-16
   5    8.2199513201794e-15
   6     -0.11564032441811
   7    -8.107178592997e-16
   8    1.1991016675466e-14
   9     -0.95344132092269
  10      0.11223409316342
  11    4.8334622514164e-17
  12    -1.7476622056993e-17
  13     -0.10761287420821
  14    1.3540256808567e-16
  15      0.82038945096862
  16       0.3867363871764
  17    -5.8931512703023e-18
  18     -0.37006648188973
  19     0.019110471725209
  20      0.82038945096864
  21      0.38673638717639
  22     7.45233497933e-17
  23      0.37006648188971
  24     0.019110471725174
 Sym= A
 Ene=     1.934300189
 Spin= Alpha
 Occup=    0.00000
   1    -1.8543344821194e-14
   2    -4.0841613679503e-14
   3    7.7621697254983e-14
   4    3.6473805006956e-16
   5    -0.0083554652888342
   6    2.3938419555682e-15
   7    -1.935388568232e-15
   8      0.89545006090379
   9    2.3957421185072e-14
  10    -2.6724312701351e-15
  11    -9.9373119525939e-16
  12    -0.029182627019883
  13    2.2074790823702e-15
  14    3.4761411870542e-17
  15     -0.38462884510541
  16    -0.089696052100298
  17    2.5996234066222e-15
  18     -0.47176778618087
  19      0.69289109484289
  20      0.38462884510537
  21     0.089696052100277
  22    1.5264337853119e-15
  23     -0.47176778618089
  24     -0.69289109484289
 Sym= A
 Ene=     2.453683009
 Spin= Alpha
 Occup=    0.00000
   1    3.0178636390197e-15
   2    7.1209213906498e-15
   3    -3.0281353930147e-15
   4    -8.2112111760955e-18
   5     -0.83671299099203
   6    3.3837408303643e-15
   7    1.1127613481407e-15
   8     -0.14963959289932
   9    -9.9598310046757e-16
  10    1.1829482222921e-16
  11    2.3579646753361e-17
  12      0.13770284562014
  13    -1.9675073784483e-16
  14    1.7825808331339e-15
  15      0.29851716669129
  16      0.32913847176228
  17    -1.0165595303764e-15
  18     -0.72312926311394
  19     -0.55329311984291
  20     -0.29851716669129
  21     -0.32913847176228
  22    -1.0345265126875e-15
  23     -0.72312926311395
  24      0.55329311984292
 Sym= A
 Ene=     2.492821811
 Spin= Alpha
 Occup=    0.00000
   1      0.27513352156648
   2      0.72437372902718
   3      0.79623417758303
   4    -5.3904216853692e-17
   5    2.8796121452287e-15
   6      0.66929862909519
   7    1.8950265319634e-16
   8    -6.1835288587364e-16
   9       0.1802420581511
  10    -0.052279700131466
  11    -1.5027211718876e-17
  12    -1.8949883422792e-15
  13      0.21613431671295
  14    -1.252671764045e-16
  15     -0.48306772706236
  16     -0.15865504311364
  17    5.3761382439715e-17
  18      0.74279154840008
  19      0.53699801105007
  20     -0.48306772706236
  21     -0.15865504311365
  22    -2.3934974324978e-17
  23     -0.74279154840008
  24      0.53699801105006
 Sym= A
 Ene=     3.289881407
 Spin= Alpha
 Occup=    0.00000
   1    -4.442514299104e-17
   2    -1.3755653870971e-16
   3    3.3591528092864e-18
   4    -0.012389676049453
   5    1.3845629722309e-15
   6    2.3897567023941e-16
   7      0.30940775238726
   8    -1.0465165214324e-15
   9    -4.4306660749307e-16
  10    -1.9407935719036e-16
  11       1.0428930546532
  12    -5.473733972346e-17
  13    -9.4558107122669e-17
  14    1.9731800893218e-13
  15    -2.1632476455599e-16
  16    1.7751302004857e-15
  17     -0.39542471498834
  18    -9.3066593963644e-16
  19    1.6017827615006e-15
  20    4.5049072193563e-16
  21    -1.6835081302591e-15
  22      -0.3954247149882
  23    -8.4519116007901e-16
  24    -1.4249229313516e-15
 Sym= A
 Ene=     3.340939218
 Spin= Alpha
 Occup=    0.00000
   1    -2.5073503378831e-16
   2    -5.222076683434e-16
   3    1.5427632005097e-15
   4    1.8875393557788e-15
   5    4.4355674094641e-16
   6    1.7974942437155e-16
   7    -5.6822373741228e-14
   8    -1.3467648560231e-16
   9    7.707903337289e-16
  10    1.2938319659417e-15
  11    -1.9577591591707e-13
  12    -5.9342069435564e-16
  13    3.2358040867072e-16
  14       1.0656876675743
  15    -5.8339716831318e-17
  16    -1.2971863056839e-15
  17     -0.36845177521331
  18    1.7868698404795e-15
  19    2.7402196123402e-16
  20    -9.5518288941729e-16
  21    7.5410825774173e-16
  22      0.36845177521345
  23    6.2779005980668e-16
  24    -7.2776397503276e-16
 Sym= A
 Ene=     3.512228136
 Spin= Alpha
 Occup=    0.00000
   1     0.083444907060313
   2      0.15337129272346
   3     -0.54317001690046
   4    8.0543171249319e-17
   5    5.8464394608006e-16
   6    -0.015641033593485
   7    8.7812269350051e-18
   8    9.4056326248672e-16
   9     -0.53000685963156
  10      -1.0832436754873
  11    -2.1081120041862e-16
  12    8.7391366127089e-16
  13     -0.18357313967635
  14    1.3953988438199e-15
  15      0.29823527226839
  16     0.036306043854631
  17    -4.0100706928131e-16
  18     -0.34741779856751
  19      0.31524112729936
  20      0.29823527226839
  21      0.03630604385463
  22    5.4923078177255e-16
  23      0.34741779856751
  24      0.31524112729936
 Sym= A
 Ene=     3.865144864
 Spin= Alpha
 Occup=    0.00000
   1      -0.1459033766875
   2     -0.18260683698328
   3       2.2619266715904
   4    1.9883284455819e-16
   5    -3.5159958861623e-15
   6      0.40282305997844
   7    -7.1150047073371e-17
   8    -6.4521920849064e-15
   9      0.92219507635308
  10      0.14439902162605
  11    -6.7932399296701e-17
  12    -9.395286464322e-15
  13      -1.1576390631136
  14    4.3740587708814e-17
  15       -1.232662704299
  16     -0.19150023304673
  17    2.5622506427174e-17
  18      0.61958678861301
  19      0.49020024353407
  20       -1.232662704299
  21     -0.19150023304673
  22    8.104438521077e-17
  23     -0.61958678861302
  24      0.49020024353408
 Sym= A
 Ene=     4.148470214
 Spin= Alpha
 Occup=    0.00000
   1    -1.7921619955627e-15
   2    -2.6437007127938e-15
   3    2.1998121661667e-14
   4    -2.1459431553294e-17
   5      0.46563305032677
   6    3.7018733243662e-15
   7    6.1981308246489e-17
   8       1.1381920815917
   9    8.2574499234693e-15
  10    1.7205796637323e-15
  11    -1.2136808916407e-16
  12        1.325131468089
  13    -7.8545363148235e-15
  14    4.9479920688492e-16
  15      -1.0797389720062
  16     -0.28779958387333
  17    -1.0617153937629e-16
  18      0.60333592331784
  19      0.49410758269159
  20       1.0797389720062
  21      0.28779958387332
  22    1.6615145844488e-16
  23      0.60333592331783
  24     -0.49410758269158
